<?xml version="1.0" encoding="UTF-8"?>

<!-- generated on Tue 28 Mar 21:09:35 2017 by SUMO gui Version 0.28.0
<?xml version="1.0" encoding="UTF-8"?>

<configuration xmlns:xsi="http://www.w3.org/2001/XMLSchema-instance" xsi:noNamespaceSchemaLocation="http://sumo.dlr.de/xsd/sumo-gui.exeConfiguration.xsd">

    <input>
        <net-file value="single-edge-3-lanes-right-bus-lanes.net.xml"/>
        <route-files value="single-edge-generated.rou.xml"/>
    </input>

    <output>
        <tripinfo-output value="single-edge-algorithm-tripinfo.xml"/>
    </output>

    <time>
        <begin value="0"/>
    </time>

    <report>
        <verbose value="true"/>
        <no-step-log value="true"/>
    </report>

    <traci_server>
        <remote-port value="59863"/>
    </traci_server>

    <random_number>
        <seed value="50"/>
    </random_number>

</configuration>
-->

<tripinfos xmlns:xsi="http://www.w3.org/2001/XMLSchema-instance" xsi:noNamespaceSchemaLocation="http://sumo.dlr.de/xsd/tripinfo_file.xsd">
</tripinfos>
