<?xml version="1.0" encoding="UTF-8"?>

<!-- generated on Sat 11 Feb 19:41:38 2017 by SUMO gui Version 0.28.0
<?xml version="1.0" encoding="UTF-8"?>

<configuration xmlns:xsi="http://www.w3.org/2001/XMLSchema-instance" xsi:noNamespaceSchemaLocation="http://sumo.dlr.de/xsd/sumo-gui.exeConfiguration.xsd">

    <input>
        <net-file value="single-edge-3-lanes-right-bus-lanes.net.xml"/>
        <route-files value="single-edge-generated.rou.xml"/>
    </input>

    <output>
        <tripinfo-output value="tripinfo.xml"/>
    </output>

    <time>
        <begin value="0"/>
    </time>

    <routing>
        <routing-algorithm value="astar"/>
    </routing>

    <report>
        <verbose value="true"/>
        <no-step-log value="true"/>
    </report>

    <traci_server>
        <remote-port value="8873"/>
    </traci_server>

</configuration>
-->

<tripinfos xmlns:xsi="http://www.w3.org/2001/XMLSchema-instance" xsi:noNamespaceSchemaLocation="http://sumo.dlr.de/xsd/tripinfo_file.xsd">
    <tripinfo id="EW_3" depart="6.00" departLane="clock-wise-2_0" departPos="5.10" departSpeed="0.00" departDelay="4.00" arrival="37.00" arrivalLane="clock-wise-1_0" arrivalPos="97.54" arrivalSpeed="11.97" duration="31.00" routeLength="185.16" waitSteps="0" timeLoss="16.91" rerouteNo="0" devices="tripinfo_EW_3" vType="bus" vaporized=""/>
    <tripinfo id="WE_7" depart="14.00" departLane="anti-clock-1_0" departPos="5.10" departSpeed="0.00" departDelay="2.00" arrival="46.00" arrivalLane="anti-clock-2_0" arrivalPos="90.82" arrivalSpeed="12.31" duration="32.00" routeLength="185.16" waitSteps="0" timeLoss="17.82" rerouteNo="0" devices="tripinfo_WE_7" vType="bus" vaporized=""/>
    <tripinfo id="EW_9" depart="26.00" departLane="clock-wise-2_0" departPos="5.10" departSpeed="0.00" departDelay="0.00" arrival="57.00" arrivalLane="clock-wise-1_0" arrivalPos="97.54" arrivalSpeed="11.52" duration="31.00" routeLength="185.16" waitSteps="0" timeLoss="17.09" rerouteNo="0" devices="tripinfo_EW_9" vType="bus" vaporized=""/>
    <tripinfo id="WE_11" depart="28.00" departLane="anti-clock-1_0" departPos="5.10" departSpeed="0.00" departDelay="0.00" arrival="59.00" arrivalLane="anti-clock-2_0" arrivalPos="90.82" arrivalSpeed="11.98" duration="31.00" routeLength="185.16" waitSteps="0" timeLoss="17.11" rerouteNo="0" devices="tripinfo_WE_11" vType="bus" vaporized=""/>
    <tripinfo id="WE_12" depart="34.00" departLane="anti-clock-1_0" departPos="5.10" departSpeed="0.00" departDelay="4.00" arrival="66.00" arrivalLane="anti-clock-2_0" arrivalPos="90.82" arrivalSpeed="11.87" duration="32.00" routeLength="185.16" waitSteps="0" timeLoss="18.31" rerouteNo="0" devices="tripinfo_WE_12" vType="bus" vaporized=""/>
    <tripinfo id="WE_13" depart="41.00" departLane="anti-clock-1_0" departPos="5.10" departSpeed="0.00" departDelay="3.00" arrival="72.00" arrivalLane="anti-clock-2_0" arrivalPos="90.82" arrivalSpeed="12.41" duration="31.00" routeLength="185.16" waitSteps="0" timeLoss="16.82" rerouteNo="0" devices="tripinfo_WE_13" vType="bus" vaporized=""/>
    <tripinfo id="WE_15" depart="47.00" departLane="anti-clock-1_0" departPos="5.10" departSpeed="0.00" departDelay="7.00" arrival="78.00" arrivalLane="anti-clock-2_0" arrivalPos="90.82" arrivalSpeed="11.68" duration="31.00" routeLength="185.16" waitSteps="0" timeLoss="17.55" rerouteNo="0" devices="tripinfo_WE_15" vType="bus" vaporized=""/>
    <tripinfo id="EW_19" depart="50.00" departLane="clock-wise-2_0" departPos="5.10" departSpeed="0.00" departDelay="0.00" arrival="81.00" arrivalLane="clock-wise-1_0" arrivalPos="97.54" arrivalSpeed="11.94" duration="31.00" routeLength="185.16" waitSteps="0" timeLoss="17.36" rerouteNo="0" devices="tripinfo_EW_19" vType="bus" vaporized=""/>
    <tripinfo id="WE_20" depart="54.00" departLane="anti-clock-1_0" departPos="5.10" departSpeed="0.00" departDelay="0.00" arrival="85.00" arrivalLane="anti-clock-2_0" arrivalPos="90.82" arrivalSpeed="11.40" duration="31.00" routeLength="185.16" waitSteps="0" timeLoss="17.65" rerouteNo="0" devices="tripinfo_WE_20" vType="bus" vaporized=""/>
    <tripinfo id="EW_21" depart="56.00" departLane="clock-wise-2_0" departPos="5.10" departSpeed="0.00" departDelay="0.00" arrival="88.00" arrivalLane="clock-wise-1_0" arrivalPos="97.54" arrivalSpeed="11.61" duration="32.00" routeLength="185.16" waitSteps="0" timeLoss="18.14" rerouteNo="0" devices="tripinfo_EW_21" vType="bus" vaporized=""/>
    <tripinfo id="WE_23" depart="64.00" departLane="anti-clock-1_0" departPos="5.10" departSpeed="0.00" departDelay="0.00" arrival="95.00" arrivalLane="anti-clock-2_0" arrivalPos="90.82" arrivalSpeed="11.72" duration="31.00" routeLength="185.16" waitSteps="0" timeLoss="17.55" rerouteNo="0" devices="tripinfo_WE_23" vType="bus" vaporized=""/>
    <tripinfo id="WE_1" depart="2.00" departLane="anti-clock-1_1" departPos="5.10" departSpeed="0.00" departDelay="0.00" arrival="95.00" arrivalLane="anti-clock-2_1" arrivalPos="90.82" arrivalSpeed="1.73" duration="93.00" routeLength="185.16" waitSteps="0" timeLoss="79.53" rerouteNo="0" devices="tripinfo_WE_1" vType="car" vaporized=""/>
    <tripinfo id="EW_0" depart="0.00" departLane="clock-wise-2_1" departPos="5.10" departSpeed="0.00" departDelay="0.00" arrival="105.00" arrivalLane="clock-wise-1_1" arrivalPos="97.54" arrivalSpeed="1.96" duration="105.00" routeLength="185.16" waitSteps="0" timeLoss="91.55" rerouteNo="0" devices="tripinfo_EW_0" vType="car" vaporized=""/>
    <tripinfo id="WE_5" depart="8.00" departLane="anti-clock-1_1" departPos="5.10" departSpeed="0.00" departDelay="1.00" arrival="108.00" arrivalLane="anti-clock-2_1" arrivalPos="90.82" arrivalSpeed="1.75" duration="100.00" routeLength="185.16" waitSteps="0" timeLoss="86.58" rerouteNo="0" devices="tripinfo_WE_5" vType="car" vaporized=""/>
    <tripinfo id="WE_4" depart="5.00" departLane="anti-clock-1_2" departPos="5.10" departSpeed="0.00" departDelay="0.00" arrival="109.00" arrivalLane="anti-clock-2_2" arrivalPos="90.82" arrivalSpeed="1.94" duration="104.00" routeLength="185.16" waitSteps="0" timeLoss="90.55" rerouteNo="0" devices="tripinfo_WE_4" vType="car" vaporized=""/>
    <tripinfo id="EW_2" depart="6.00" departLane="clock-wise-2_1" departPos="5.10" departSpeed="0.00" departDelay="4.00" arrival="110.00" arrivalLane="clock-wise-1_2" arrivalPos="97.54" arrivalSpeed="1.92" duration="104.00" routeLength="185.16" waitSteps="0" timeLoss="90.58" rerouteNo="0" devices="tripinfo_EW_2" vType="car" vaporized=""/>
    <tripinfo id="EW_8" depart="20.00" departLane="clock-wise-2_1" departPos="5.10" departSpeed="0.00" departDelay="0.00" arrival="112.00" arrivalLane="clock-wise-1_1" arrivalPos="97.54" arrivalSpeed="1.94" duration="92.00" routeLength="185.16" waitSteps="1" timeLoss="78.57" rerouteNo="0" devices="tripinfo_EW_8" vType="car" vaporized=""/>
    <tripinfo id="EW_26" depart="78.00" departLane="clock-wise-2_0" departPos="5.10" departSpeed="0.00" departDelay="0.00" arrival="113.00" arrivalLane="clock-wise-1_0" arrivalPos="97.54" arrivalSpeed="9.46" duration="35.00" routeLength="185.16" waitSteps="0" timeLoss="21.41" rerouteNo="0" devices="tripinfo_EW_26" vType="bus" vaporized=""/>
    <tripinfo id="WE_6" depart="14.00" departLane="anti-clock-1_1" departPos="5.10" departSpeed="0.00" departDelay="2.00" arrival="118.00" arrivalLane="anti-clock-2_1" arrivalPos="90.82" arrivalSpeed="1.99" duration="104.00" routeLength="185.16" waitSteps="0" timeLoss="90.60" rerouteNo="0" devices="tripinfo_WE_6" vType="car" vaporized=""/>
    <tripinfo id="WE_14" depart="41.00" departLane="anti-clock-1_2" departPos="5.10" departSpeed="0.00" departDelay="2.00" arrival="120.00" arrivalLane="anti-clock-2_1" arrivalPos="90.82" arrivalSpeed="1.68" duration="79.00" routeLength="185.16" waitSteps="0" timeLoss="65.62" rerouteNo="0" devices="tripinfo_WE_14" vType="car" vaporized=""/>
    <tripinfo id="WE_30" depart="90.00" departLane="anti-clock-1_0" departPos="5.10" departSpeed="0.00" departDelay="0.00" arrival="121.00" arrivalLane="anti-clock-2_0" arrivalPos="90.82" arrivalSpeed="11.74" duration="31.00" routeLength="185.16" waitSteps="0" timeLoss="17.54" rerouteNo="0" devices="tripinfo_WE_30" vType="bus" vaporized=""/>
    <tripinfo id="EW_31" depart="92.00" departLane="clock-wise-2_0" departPos="5.10" departSpeed="0.00" departDelay="0.00" arrival="123.00" arrivalLane="clock-wise-1_0" arrivalPos="97.54" arrivalSpeed="11.53" duration="31.00" routeLength="185.16" waitSteps="0" timeLoss="17.50" rerouteNo="0" devices="tripinfo_EW_31" vType="bus" vaporized=""/>
    <tripinfo id="WE_10" depart="27.00" departLane="anti-clock-1_1" departPos="5.10" departSpeed="0.00" departDelay="0.00" arrival="131.00" arrivalLane="anti-clock-2_1" arrivalPos="90.82" arrivalSpeed="1.82" duration="104.00" routeLength="185.16" waitSteps="0" timeLoss="90.50" rerouteNo="0" devices="tripinfo_WE_10" vType="car" vaporized=""/>
    <tripinfo id="WE_17" depart="47.00" departLane="anti-clock-1_2" departPos="5.10" departSpeed="0.00" departDelay="5.00" arrival="135.00" arrivalLane="anti-clock-2_0" arrivalPos="90.82" arrivalSpeed="7.09" duration="88.00" routeLength="185.16" waitSteps="0" timeLoss="74.23" rerouteNo="0" devices="tripinfo_WE_17" vType="car" vaporized=""/>
    <tripinfo id="EW_16" depart="41.00" departLane="clock-wise-2_1" departPos="5.10" departSpeed="0.00" departDelay="0.00" arrival="136.00" arrivalLane="clock-wise-1_0" arrivalPos="97.54" arrivalSpeed="6.55" duration="95.00" routeLength="185.16" waitSteps="0" timeLoss="81.27" rerouteNo="0" devices="tripinfo_EW_16" vType="car" vaporized=""/>
    <tripinfo id="WE_25" depart="72.00" departLane="anti-clock-1_1" departPos="5.10" departSpeed="0.00" departDelay="0.00" arrival="144.00" arrivalLane="anti-clock-2_0" arrivalPos="90.82" arrivalSpeed="10.07" duration="72.00" routeLength="185.16" waitSteps="0" timeLoss="58.58" rerouteNo="0" devices="tripinfo_WE_25" vType="car" vaporized=""/>
    <tripinfo id="EW_27" depart="80.00" departLane="clock-wise-2_1" departPos="5.10" departSpeed="0.00" departDelay="0.00" arrival="149.00" arrivalLane="clock-wise-1_0" arrivalPos="97.54" arrivalSpeed="10.50" duration="69.00" routeLength="185.16" waitSteps="0" timeLoss="55.53" rerouteNo="0" devices="tripinfo_EW_27" vType="car" vaporized=""/>
    <tripinfo id="EW_18" depart="49.00" departLane="clock-wise-2_2" departPos="5.10" departSpeed="0.00" departDelay="0.00" arrival="154.00" arrivalLane="clock-wise-1_1" arrivalPos="97.54" arrivalSpeed="1.76" duration="105.00" routeLength="185.16" waitSteps="0" timeLoss="91.55" rerouteNo="0" devices="tripinfo_EW_18" vType="car" vaporized=""/>
    <tripinfo id="WE_29" depart="90.00" departLane="anti-clock-1_1" departPos="5.10" departSpeed="0.00" departDelay="0.00" arrival="163.00" arrivalLane="anti-clock-2_0" arrivalPos="90.82" arrivalSpeed="10.70" duration="73.00" routeLength="185.16" waitSteps="0" timeLoss="58.91" rerouteNo="0" devices="tripinfo_WE_29" vType="car" vaporized=""/>
    <tripinfo id="EW_22" depart="61.00" departLane="clock-wise-2_2" departPos="5.10" departSpeed="0.00" departDelay="0.00" arrival="165.00" arrivalLane="clock-wise-1_1" arrivalPos="97.54" arrivalSpeed="1.65" duration="104.00" routeLength="185.16" waitSteps="0" timeLoss="90.60" rerouteNo="0" devices="tripinfo_EW_22" vType="car" vaporized=""/>
    <tripinfo id="EW_40" depart="130.00" departLane="clock-wise-2_0" departPos="5.10" departSpeed="0.00" departDelay="0.00" arrival="166.00" arrivalLane="clock-wise-1_0" arrivalPos="97.54" arrivalSpeed="7.20" duration="36.00" routeLength="185.16" waitSteps="0" timeLoss="22.43" rerouteNo="0" devices="tripinfo_EW_40" vType="bus" vaporized=""/>
    <tripinfo id="EW_24" depart="70.00" departLane="clock-wise-2_2" departPos="5.10" departSpeed="0.00" departDelay="0.00" arrival="174.00" arrivalLane="clock-wise-1_1" arrivalPos="97.54" arrivalSpeed="1.85" duration="104.00" routeLength="185.16" waitSteps="0" timeLoss="90.56" rerouteNo="0" devices="tripinfo_EW_24" vType="car" vaporized=""/>
    <tripinfo id="EW_28" depart="84.00" departLane="clock-wise-2_2" departPos="5.10" departSpeed="0.00" departDelay="0.00" arrival="175.00" arrivalLane="clock-wise-1_0" arrivalPos="97.54" arrivalSpeed="3.56" duration="91.00" routeLength="185.16" waitSteps="0" timeLoss="77.44" rerouteNo="0" devices="tripinfo_EW_28" vType="car" vaporized=""/>
    <tripinfo id="WE_44" depart="146.00" departLane="anti-clock-1_0" departPos="5.10" departSpeed="0.00" departDelay="0.00" arrival="178.00" arrivalLane="anti-clock-2_0" arrivalPos="90.82" arrivalSpeed="11.73" duration="32.00" routeLength="185.16" waitSteps="0" timeLoss="18.11" rerouteNo="0" devices="tripinfo_WE_44" vType="bus" vaporized=""/>
    <tripinfo id="WE_32" depart="93.00" departLane="anti-clock-1_2" departPos="5.10" departSpeed="0.00" departDelay="0.00" arrival="179.00" arrivalLane="anti-clock-2_1" arrivalPos="90.82" arrivalSpeed="1.92" duration="86.00" routeLength="185.16" waitSteps="0" timeLoss="72.62" rerouteNo="0" devices="tripinfo_WE_32" vType="car" vaporized=""/>
    <tripinfo id="WE_45" depart="153.00" departLane="anti-clock-1_0" departPos="5.10" departSpeed="0.00" departDelay="3.00" arrival="184.00" arrivalLane="anti-clock-2_0" arrivalPos="90.82" arrivalSpeed="11.99" duration="31.00" routeLength="185.16" waitSteps="0" timeLoss="17.43" rerouteNo="0" devices="tripinfo_WE_45" vType="bus" vaporized=""/>
    <tripinfo id="EW_33" depart="101.00" departLane="clock-wise-2_2" departPos="5.10" departSpeed="0.00" departDelay="0.00" arrival="189.00" arrivalLane="clock-wise-1_1" arrivalPos="97.54" arrivalSpeed="1.71" duration="88.00" routeLength="185.16" waitSteps="0" timeLoss="74.61" rerouteNo="0" devices="tripinfo_EW_33" vType="car" vaporized=""/>
    <tripinfo id="WE_46" depart="159.00" departLane="anti-clock-1_0" departPos="5.10" departSpeed="0.00" departDelay="5.00" arrival="191.00" arrivalLane="anti-clock-2_0" arrivalPos="90.82" arrivalSpeed="11.36" duration="32.00" routeLength="185.16" waitSteps="1" timeLoss="18.41" rerouteNo="0" devices="tripinfo_WE_46" vType="bus" vaporized=""/>
    <tripinfo id="EW_49" depart="158.00" departLane="clock-wise-2_0" departPos="5.10" departSpeed="0.00" departDelay="0.00" arrival="195.00" arrivalLane="clock-wise-1_0" arrivalPos="97.54" arrivalSpeed="8.91" duration="37.00" routeLength="185.16" waitSteps="0" timeLoss="23.42" rerouteNo="0" devices="tripinfo_EW_49" vType="bus" vaporized=""/>
    <tripinfo id="WE_39" depart="130.00" departLane="anti-clock-1_1" departPos="5.10" departSpeed="0.00" departDelay="0.00" arrival="199.00" arrivalLane="anti-clock-2_0" arrivalPos="90.82" arrivalSpeed="2.94" duration="69.00" routeLength="185.16" waitSteps="0" timeLoss="55.50" rerouteNo="0" devices="tripinfo_WE_39" vType="car" vaporized=""/>
    <tripinfo id="WE_34" depart="107.00" departLane="anti-clock-1_1" departPos="5.10" departSpeed="0.00" departDelay="0.00" arrival="203.00" arrivalLane="anti-clock-2_0" arrivalPos="90.82" arrivalSpeed="5.89" duration="96.00" routeLength="185.16" waitSteps="0" timeLoss="82.40" rerouteNo="0" devices="tripinfo_WE_34" vType="car" vaporized=""/>
    <tripinfo id="EW_37" depart="123.00" departLane="clock-wise-2_1" departPos="5.10" departSpeed="0.00" departDelay="0.00" arrival="211.00" arrivalLane="clock-wise-1_0" arrivalPos="97.54" arrivalSpeed="7.79" duration="88.00" routeLength="185.16" waitSteps="1" timeLoss="74.08" rerouteNo="0" devices="tripinfo_EW_37" vType="car" vaporized=""/>
    <tripinfo id="WE_54" depart="182.00" departLane="anti-clock-1_0" departPos="5.10" departSpeed="0.00" departDelay="0.00" arrival="217.00" arrivalLane="anti-clock-2_0" arrivalPos="90.82" arrivalSpeed="10.22" duration="35.00" routeLength="185.16" waitSteps="0" timeLoss="21.15" rerouteNo="0" devices="tripinfo_WE_54" vType="bus" vaporized=""/>
    <tripinfo id="EW_36" depart="121.00" departLane="clock-wise-2_2" departPos="5.10" departSpeed="0.00" departDelay="4.00" arrival="218.00" arrivalLane="clock-wise-1_0" arrivalPos="97.54" arrivalSpeed="5.73" duration="97.00" routeLength="185.16" waitSteps="0" timeLoss="83.36" rerouteNo="0" devices="tripinfo_EW_36" vType="car" vaporized=""/>
    <tripinfo id="WE_55" depart="188.00" departLane="anti-clock-1_0" departPos="5.10" departSpeed="0.00" departDelay="4.00" arrival="219.00" arrivalLane="anti-clock-2_0" arrivalPos="90.82" arrivalSpeed="11.38" duration="31.00" routeLength="185.16" waitSteps="0" timeLoss="17.47" rerouteNo="0" devices="tripinfo_WE_55" vType="bus" vaporized=""/>
    <tripinfo id="EW_35" depart="115.00" departLane="clock-wise-2_2" departPos="5.10" departSpeed="0.00" departDelay="0.00" arrival="219.00" arrivalLane="clock-wise-1_1" arrivalPos="97.54" arrivalSpeed="1.95" duration="104.00" routeLength="185.16" waitSteps="0" timeLoss="90.53" rerouteNo="0" devices="tripinfo_EW_35" vType="car" vaporized=""/>
    <tripinfo id="WE_38" depart="127.00" departLane="anti-clock-1_2" departPos="5.10" departSpeed="0.00" departDelay="0.00" arrival="230.00" arrivalLane="anti-clock-2_1" arrivalPos="90.82" arrivalSpeed="1.70" duration="103.00" routeLength="185.16" waitSteps="0" timeLoss="89.54" rerouteNo="0" devices="tripinfo_WE_38" vType="car" vaporized=""/>
    <tripinfo id="EW_59" depart="199.00" departLane="clock-wise-2_2" departPos="5.10" departSpeed="0.00" departDelay="0.00" arrival="232.00" arrivalLane="clock-wise-1_0" arrivalPos="97.54" arrivalSpeed="13.71" duration="33.00" routeLength="185.16" waitSteps="0" timeLoss="19.45" rerouteNo="0" devices="tripinfo_EW_59" vType="car" vaporized=""/>
    <tripinfo id="WE_43" depart="144.00" departLane="anti-clock-1_1" departPos="5.10" departSpeed="0.00" departDelay="0.00" arrival="233.00" arrivalLane="anti-clock-2_0" arrivalPos="90.82" arrivalSpeed="7.16" duration="89.00" routeLength="185.16" waitSteps="0" timeLoss="75.49" rerouteNo="0" devices="tripinfo_WE_43" vType="car" vaporized=""/>
    <tripinfo id="WE_42" depart="136.00" departLane="anti-clock-1_1" departPos="5.10" departSpeed="0.00" departDelay="0.00" arrival="236.00" arrivalLane="anti-clock-2_1" arrivalPos="90.82" arrivalSpeed="1.93" duration="100.00" routeLength="185.16" waitSteps="0" timeLoss="86.50" rerouteNo="0" devices="tripinfo_WE_42" vType="car" vaporized=""/>
    <tripinfo id="EW_41" depart="133.00" departLane="clock-wise-2_2" departPos="5.10" departSpeed="0.00" departDelay="0.00" arrival="236.00" arrivalLane="clock-wise-1_1" arrivalPos="97.54" arrivalSpeed="1.74" duration="103.00" routeLength="185.16" waitSteps="0" timeLoss="89.60" rerouteNo="0" devices="tripinfo_EW_41" vType="car" vaporized=""/>
    <tripinfo id="WE_50" depart="165.00" departLane="anti-clock-1_1" departPos="5.10" departSpeed="0.00" departDelay="3.00" arrival="239.00" arrivalLane="anti-clock-2_0" arrivalPos="90.82" arrivalSpeed="9.80" duration="74.00" routeLength="185.16" waitSteps="0" timeLoss="60.26" rerouteNo="0" devices="tripinfo_WE_50" vType="car" vaporized=""/>
    <tripinfo id="EW_53" depart="171.00" departLane="clock-wise-2_2" departPos="5.10" departSpeed="0.00" departDelay="0.00" arrival="242.00" arrivalLane="clock-wise-1_0" arrivalPos="97.54" arrivalSpeed="10.72" duration="71.00" routeLength="185.16" waitSteps="0" timeLoss="57.03" rerouteNo="0" devices="tripinfo_EW_53" vType="car" vaporized=""/>
    <tripinfo id="WE_51" depart="171.00" departLane="anti-clock-1_1" departPos="5.10" departSpeed="0.00" departDelay="6.00" arrival="244.00" arrivalLane="anti-clock-2_0" arrivalPos="90.82" arrivalSpeed="9.85" duration="73.00" routeLength="185.16" waitSteps="0" timeLoss="59.05" rerouteNo="0" devices="tripinfo_WE_51" vType="car" vaporized=""/>
    <tripinfo id="EW_62" depart="205.00" departLane="clock-wise-2_1" departPos="5.10" departSpeed="0.00" departDelay="0.00" arrival="244.00" arrivalLane="clock-wise-1_0" arrivalPos="97.54" arrivalSpeed="10.22" duration="39.00" routeLength="185.16" waitSteps="0" timeLoss="25.58" rerouteNo="0" devices="tripinfo_EW_62" vType="car" vaporized=""/>
    <tripinfo id="WE_52" depart="176.00" departLane="anti-clock-1_1" departPos="5.10" departSpeed="0.00" departDelay="6.00" arrival="250.00" arrivalLane="anti-clock-2_0" arrivalPos="90.82" arrivalSpeed="10.79" duration="74.00" routeLength="185.16" waitSteps="0" timeLoss="59.86" rerouteNo="0" devices="tripinfo_WE_52" vType="car" vaporized=""/>
    <tripinfo id="EW_66" depart="224.00" departLane="clock-wise-2_0" departPos="5.10" departSpeed="0.00" departDelay="0.00" arrival="256.00" arrivalLane="clock-wise-1_0" arrivalPos="97.54" arrivalSpeed="11.84" duration="32.00" routeLength="185.16" waitSteps="0" timeLoss="18.25" rerouteNo="0" devices="tripinfo_EW_66" vType="bus" vaporized=""/>
    <tripinfo id="WE_57" depart="188.00" departLane="anti-clock-1_2" departPos="5.10" departSpeed="0.00" departDelay="0.00" arrival="260.00" arrivalLane="anti-clock-2_0" arrivalPos="90.82" arrivalSpeed="10.44" duration="72.00" routeLength="185.16" waitSteps="0" timeLoss="57.91" rerouteNo="0" devices="tripinfo_WE_57" vType="car" vaporized=""/>
    <tripinfo id="WE_48" depart="159.00" departLane="anti-clock-1_2" departPos="5.10" departSpeed="0.00" departDelay="1.00" arrival="262.00" arrivalLane="anti-clock-2_2" arrivalPos="90.82" arrivalSpeed="1.74" duration="103.00" routeLength="185.16" waitSteps="0" timeLoss="89.61" rerouteNo="0" devices="tripinfo_WE_48" vType="car" vaporized=""/>
    <tripinfo id="WE_47" depart="159.00" departLane="anti-clock-1_1" departPos="5.10" departSpeed="0.00" departDelay="2.00" arrival="265.00" arrivalLane="anti-clock-2_1" arrivalPos="90.82" arrivalSpeed="1.73" duration="106.00" routeLength="185.16" waitSteps="0" timeLoss="92.54" rerouteNo="0" devices="tripinfo_WE_47" vType="car" vaporized=""/>
    <tripinfo id="EW_58" depart="190.00" departLane="clock-wise-2_1" departPos="5.10" departSpeed="0.00" departDelay="0.00" arrival="269.00" arrivalLane="clock-wise-1_0" arrivalPos="97.54" arrivalSpeed="9.30" duration="79.00" routeLength="185.16" waitSteps="0" timeLoss="65.16" rerouteNo="0" devices="tripinfo_EW_58" vType="car" vaporized=""/>
    <tripinfo id="WE_69" depart="242.00" departLane="anti-clock-1_0" departPos="5.10" departSpeed="0.00" departDelay="0.00" arrival="272.00" arrivalLane="anti-clock-2_0" arrivalPos="90.82" arrivalSpeed="12.57" duration="30.00" routeLength="185.16" waitSteps="0" timeLoss="15.83" rerouteNo="0" devices="tripinfo_WE_69" vType="bus" vaporized=""/>
    <tripinfo id="EW_63" depart="213.00" departLane="clock-wise-2_1" departPos="5.10" departSpeed="0.00" departDelay="0.00" arrival="274.00" arrivalLane="clock-wise-1_0" arrivalPos="97.54" arrivalSpeed="10.34" duration="61.00" routeLength="185.16" waitSteps="0" timeLoss="47.50" rerouteNo="0" devices="tripinfo_EW_63" vType="car" vaporized=""/>
    <tripinfo id="EW_65" depart="223.00" departLane="clock-wise-2_1" departPos="5.10" departSpeed="0.00" departDelay="0.00" arrival="276.00" arrivalLane="clock-wise-1_0" arrivalPos="97.54" arrivalSpeed="10.81" duration="53.00" routeLength="185.16" waitSteps="0" timeLoss="39.32" rerouteNo="0" devices="tripinfo_EW_65" vType="car" vaporized=""/>
    <tripinfo id="EW_56" depart="187.00" departLane="clock-wise-2_2" departPos="5.10" departSpeed="0.00" departDelay="0.00" arrival="281.00" arrivalLane="clock-wise-1_0" arrivalPos="97.54" arrivalSpeed="6.23" duration="94.00" routeLength="185.16" waitSteps="0" timeLoss="80.56" rerouteNo="0" devices="tripinfo_EW_56" vType="car" vaporized=""/>
    <tripinfo id="WE_70" depart="256.00" departLane="anti-clock-1_0" departPos="5.10" departSpeed="0.00" departDelay="0.00" arrival="287.00" arrivalLane="anti-clock-2_0" arrivalPos="90.82" arrivalSpeed="11.65" duration="31.00" routeLength="185.16" waitSteps="0" timeLoss="17.23" rerouteNo="0" devices="tripinfo_WE_70" vType="bus" vaporized=""/>
    <tripinfo id="EW_71" depart="259.00" departLane="clock-wise-2_2" departPos="5.10" departSpeed="0.00" departDelay="0.00" arrival="292.00" arrivalLane="clock-wise-1_0" arrivalPos="97.54" arrivalSpeed="13.49" duration="33.00" routeLength="185.16" waitSteps="0" timeLoss="18.90" rerouteNo="0" devices="tripinfo_EW_71" vType="car" vaporized=""/>
    <tripinfo id="EW_72" depart="267.00" departLane="clock-wise-2_1" departPos="5.10" departSpeed="0.00" departDelay="0.00" arrival="294.00" arrivalLane="clock-wise-1_0" arrivalPos="97.54" arrivalSpeed="13.83" duration="27.00" routeLength="185.16" waitSteps="0" timeLoss="13.51" rerouteNo="0" devices="tripinfo_EW_72" vType="car" vaporized=""/>
    <tripinfo id="WE_60" depart="204.00" departLane="anti-clock-1_2" departPos="5.10" departSpeed="0.00" departDelay="0.00" arrival="297.00" arrivalLane="anti-clock-2_0" arrivalPos="90.82" arrivalSpeed="4.62" duration="93.00" routeLength="185.16" waitSteps="0" timeLoss="79.58" rerouteNo="0" devices="tripinfo_WE_60" vType="car" vaporized=""/>
    <tripinfo id="WE_64" depart="220.00" departLane="anti-clock-1_1" departPos="5.10" departSpeed="0.00" departDelay="0.00" arrival="299.00" arrivalLane="anti-clock-2_0" arrivalPos="90.82" arrivalSpeed="9.41" duration="79.00" routeLength="185.16" waitSteps="0" timeLoss="65.49" rerouteNo="0" devices="tripinfo_WE_64" vType="car" vaporized=""/>
    <tripinfo id="EW_68" depart="230.00" departLane="clock-wise-2_1" departPos="5.10" departSpeed="0.00" departDelay="0.00" arrival="303.00" arrivalLane="clock-wise-1_0" arrivalPos="97.54" arrivalSpeed="9.70" duration="73.00" routeLength="185.16" waitSteps="0" timeLoss="59.36" rerouteNo="0" devices="tripinfo_EW_68" vType="car" vaporized=""/>
    <tripinfo id="EW_73" depart="269.00" departLane="clock-wise-2_2" departPos="5.10" departSpeed="0.00" departDelay="0.00" arrival="305.00" arrivalLane="clock-wise-1_0" arrivalPos="97.54" arrivalSpeed="12.56" duration="36.00" routeLength="185.16" waitSteps="0" timeLoss="22.17" rerouteNo="0" devices="tripinfo_EW_73" vType="car" vaporized=""/>
    <tripinfo id="WE_76" depart="277.00" departLane="anti-clock-1_0" departPos="5.10" departSpeed="0.00" departDelay="1.00" arrival="308.00" arrivalLane="anti-clock-2_0" arrivalPos="90.82" arrivalSpeed="11.84" duration="31.00" routeLength="185.16" waitSteps="0" timeLoss="17.66" rerouteNo="0" devices="tripinfo_WE_76" vType="bus" vaporized=""/>
    <tripinfo id="EW_67" depart="227.00" departLane="clock-wise-2_2" departPos="5.10" departSpeed="0.00" departDelay="0.00" arrival="312.00" arrivalLane="clock-wise-1_0" arrivalPos="97.54" arrivalSpeed="8.46" duration="85.00" routeLength="185.16" waitSteps="0" timeLoss="71.29" rerouteNo="0" devices="tripinfo_EW_67" vType="car" vaporized=""/>
    <tripinfo id="WE_61" depart="209.00" departLane="anti-clock-1_2" departPos="5.10" departSpeed="0.00" departDelay="4.00" arrival="315.00" arrivalLane="anti-clock-2_1" arrivalPos="90.82" arrivalSpeed="1.90" duration="106.00" routeLength="185.16" waitSteps="1" timeLoss="92.61" rerouteNo="0" devices="tripinfo_WE_61" vType="car" vaporized=""/>
    <tripinfo id="WE_79" depart="300.00" departLane="anti-clock-1_0" departPos="5.10" departSpeed="0.00" departDelay="0.00" arrival="331.00" arrivalLane="anti-clock-2_0" arrivalPos="90.82" arrivalSpeed="11.88" duration="31.00" routeLength="185.16" waitSteps="0" timeLoss="17.09" rerouteNo="0" devices="tripinfo_WE_79" vType="bus" vaporized=""/>
    <tripinfo id="EW_87" depart="319.00" departLane="clock-wise-2_0" departPos="5.10" departSpeed="0.00" departDelay="1.00" arrival="350.00" arrivalLane="clock-wise-1_0" arrivalPos="97.54" arrivalSpeed="11.76" duration="31.00" routeLength="185.16" waitSteps="0" timeLoss="17.40" rerouteNo="0" devices="tripinfo_EW_87" vType="bus" vaporized=""/>
    <tripinfo id="WE_75" depart="277.00" departLane="anti-clock-1_2" departPos="5.10" departSpeed="0.00" departDelay="3.00" arrival="351.00" arrivalLane="anti-clock-2_0" arrivalPos="90.82" arrivalSpeed="10.14" duration="74.00" routeLength="185.16" waitSteps="0" timeLoss="60.08" rerouteNo="0" devices="tripinfo_WE_75" vType="car" vaporized=""/>
    <tripinfo id="WE_77" depart="285.00" departLane="anti-clock-1_2" departPos="5.10" departSpeed="0.00" departDelay="0.00" arrival="358.00" arrivalLane="anti-clock-2_0" arrivalPos="90.82" arrivalSpeed="10.11" duration="73.00" routeLength="185.16" waitSteps="0" timeLoss="59.14" rerouteNo="0" devices="tripinfo_WE_77" vType="car" vaporized=""/>
    <tripinfo id="WE_78" depart="292.00" departLane="anti-clock-1_1" departPos="5.10" departSpeed="0.00" departDelay="0.00" arrival="365.00" arrivalLane="anti-clock-2_0" arrivalPos="90.82" arrivalSpeed="9.58" duration="73.00" routeLength="185.16" waitSteps="0" timeLoss="59.45" rerouteNo="0" devices="tripinfo_WE_78" vType="car" vaporized=""/>
    <tripinfo id="EW_95" depart="336.00" departLane="clock-wise-2_0" departPos="5.10" departSpeed="0.00" departDelay="2.00" arrival="366.00" arrivalLane="clock-wise-1_0" arrivalPos="97.54" arrivalSpeed="12.25" duration="30.00" routeLength="185.16" waitSteps="0" timeLoss="16.61" rerouteNo="0" devices="tripinfo_EW_95" vType="bus" vaporized=""/>
    <tripinfo id="EW_96" depart="342.00" departLane="clock-wise-2_0" departPos="5.10" departSpeed="0.00" departDelay="4.00" arrival="373.00" arrivalLane="clock-wise-1_0" arrivalPos="97.54" arrivalSpeed="11.78" duration="31.00" routeLength="185.16" waitSteps="0" timeLoss="17.35" rerouteNo="0" devices="tripinfo_EW_96" vType="bus" vaporized=""/>
    <tripinfo id="WE_74" depart="271.00" departLane="anti-clock-1_2" departPos="5.10" departSpeed="0.00" departDelay="0.00" arrival="375.00" arrivalLane="anti-clock-2_1" arrivalPos="90.82" arrivalSpeed="1.74" duration="104.00" routeLength="185.16" waitSteps="0" timeLoss="90.57" rerouteNo="0" devices="tripinfo_WE_74" vType="car" vaporized=""/>
    <tripinfo id="WE_80" depart="304.00" departLane="anti-clock-1_2" departPos="5.10" departSpeed="0.00" departDelay="0.00" arrival="376.00" arrivalLane="anti-clock-2_0" arrivalPos="90.82" arrivalSpeed="10.23" duration="72.00" routeLength="185.16" waitSteps="0" timeLoss="58.14" rerouteNo="0" devices="tripinfo_WE_80" vType="car" vaporized=""/>